# vtk DataFile Version 3.0
kepler mesh
ASCII
DATASET UNSTRUCTURED_GRID
POINTS 125 double
0 0 0
0.25 0 0
0.5 0 0
0.75 0 0
1 0 0
0 0.25 0
0.25 0.25 0
0.5 0.25 0
0.75 0.25 0
1 0.25 0
0 0.5 0
0.25 0.5 0
0.5 0.5 0
0.75 0.5 0
1 0.5 0
0 0.75 0
0.25 0.75 0
0.5 0.75 0
0.75 0.75 0
1 0.75 0
0 1 0
0.25 1 0
0.5 1 0
0.75 1 0
1 1 0
0 0 0.25
0.25 0 0.25
0.5 0 0.25
0.75 0 0.25
1 0 0.25
0 0.25 0.25
0.25 0.25 0.25
0.5 0.25 0.25
0.75 0.25 0.25
1 0.25 0.25
0 0.5 0.25
0.25 0.5 0.25
0.5 0.5 0.25
0.75 0.5 0.25
1 0.5 0.25
0 0.75 0.25
0.25 0.75 0.25
0.5 0.75 0.25
0.75 0.75 0.25
1 0.75 0.25
0 1 0.25
0.25 1 0.25
0.5 1 0.25
0.75 1 0.25
1 1 0.25
0 0 0.5
0.25 0 0.5
0.5 0 0.5
0.75 0 0.5
1 0 0.5
0 0.25 0.5
0.25 0.25 0.5
0.5 0.25 0.5
0.75 0.25 0.5
1 0.25 0.5
0 0.5 0.5
0.25 0.5 0.5
0.5 0.5 0.5
0.75 0.5 0.5
1 0.5 0.5
0 0.75 0.5
0.25 0.75 0.5
0.5 0.75 0.5
0.75 0.75 0.5
1 0.75 0.5
0 1 0.5
0.25 1 0.5
0.5 1 0.5
0.75 1 0.5
1 1 0.5
0 0 0.75
0.25 0 0.75
0.5 0 0.75
0.75 0 0.75
1 0 0.75
0 0.25 0.75
0.25 0.25 0.75
0.5 0.25 0.75
0.75 0.25 0.75
1 0.25 0.75
0 0.5 0.75
0.25 0.5 0.75
0.5 0.5 0.75
0.75 0.5 0.75
1 0.5 0.75
0 0.75 0.75
0.25 0.75 0.75
0.5 0.75 0.75
0.75 0.75 0.75
1 0.75 0.75
0 1 0.75
0.25 1 0.75
0.5 1 0.75
0.75 1 0.75
1 1 0.75
0 0 1
0.25 0 1
0.5 0 1
0.75 0 1
1 0 1
0 0.25 1
0.25 0.25 1
0.5 0.25 1
0.75 0.25 1
1 0.25 1
0 0.5 1
0.25 0.5 1
0.5 0.5 1
0.75 0.5 1
1 0.5 1
0 0.75 1
0.25 0.75 1
0.5 0.75 1
0.75 0.75 1
1 0.75 1
0 1 1
0.25 1 1
0.5 1 1
0.75 1 1
1 1 1
CELLS 416 2048
3 0 5 30
3 0 30 25
3 5 10 35
3 5 35 30
3 10 15 40
3 10 40 35
3 15 20 45
3 15 45 40
3 25 30 55
3 25 55 50
3 30 35 60
3 30 60 55
3 35 40 65
3 35 65 60
3 40 45 70
3 40 70 65
3 50 55 80
3 50 80 75
3 55 60 85
3 55 85 80
3 60 65 90
3 60 90 85
3 65 70 95
3 65 95 90
3 75 80 105
3 75 105 100
3 80 85 110
3 80 110 105
3 85 90 115
3 85 115 110
3 90 95 120
3 90 120 115
4 0 1 6 31
4 0 6 5 31
4 0 1 31 26
4 0 26 25 31
4 0 25 30 31
4 0 30 5 31
4 1 2 7 32
4 1 7 6 32
4 1 2 32 27
4 1 27 26 32
4 1 26 31 32
4 1 31 6 32
4 2 3 8 33
4 2 8 7 33
4 2 3 33 28
4 2 28 27 33
4 2 27 32 33
4 2 32 7 33
4 3 4 9 34
4 3 9 8 34
4 3 4 34 29
4 3 29 28 34
4 3 28 33 34
4 3 33 8 34
4 5 6 11 36
4 5 11 10 36
4 5 6 36 31
4 5 31 30 36
4 5 30 35 36
4 5 35 10 36
4 6 7 12 37
4 6 12 11 37
4 6 7 37 32
4 6 32 31 37
4 6 31 36 37
4 6 36 11 37
4 7 8 13 38
4 7 13 12 38
4 7 8 38 33
4 7 33 32 38
4 7 32 37 38
4 7 37 12 38
4 8 9 14 39
4 8 14 13 39
4 8 9 39 34
4 8 34 33 39
4 8 33 38 39
4 8 38 13 39
4 10 11 16 41
4 10 16 15 41
4 10 11 41 36
4 10 36 35 41
4 10 35 40 41
4 10 40 15 41
4 11 12 17 42
4 11 17 16 42
4 11 12 42 37
4 11 37 36 42
4 11 36 41 42
4 11 41 16 42
4 12 13 18 43
4 12 18 17 43
4 12 13 43 38
4 12 38 37 43
4 12 37 42 43
4 12 42 17 43
4 13 14 19 44
4 13 19 18 44
4 13 14 44 39
4 13 39 38 44
4 13 38 43 44
4 13 43 18 44
4 15 16 21 46
4 15 21 20 46
4 15 16 46 41
4 15 41 40 46
4 15 40 45 46
4 15 45 20 46
4 16 17 22 47
4 16 22 21 47
4 16 17 47 42
4 16 42 41 47
4 16 41 46 47
4 16 46 21 47
4 17 18 23 48
4 17 23 22 48
4 17 18 48 43
4 17 43 42 48
4 17 42 47 48
4 17 47 22 48
4 18 19 24 49
4 18 24 23 49
4 18 19 49 44
4 18 44 43 49
4 18 43 48 49
4 18 48 23 49
4 25 26 31 56
4 25 31 30 56
4 25 26 56 51
4 25 51 50 56
4 25 50 55 56
4 25 55 30 56
4 26 27 32 57
4 26 32 31 57
4 26 27 57 52
4 26 52 51 57
4 26 51 56 57
4 26 56 31 57
4 27 28 33 58
4 27 33 32 58
4 27 28 58 53
4 27 53 52 58
4 27 52 57 58
4 27 57 32 58
4 28 29 34 59
4 28 34 33 59
4 28 29 59 54
4 28 54 53 59
4 28 53 58 59
4 28 58 33 59
4 30 31 36 61
4 30 36 35 61
4 30 31 61 56
4 30 56 55 61
4 30 55 60 61
4 30 60 35 61
4 31 32 37 62
4 31 37 36 62
4 31 32 62 57
4 31 57 56 62
4 31 56 61 62
4 31 61 36 62
4 32 33 38 63
4 32 38 37 63
4 32 33 63 58
4 32 58 57 63
4 32 57 62 63
4 32 62 37 63
4 33 34 39 64
4 33 39 38 64
4 33 34 64 59
4 33 59 58 64
4 33 58 63 64
4 33 63 38 64
4 35 36 41 66
4 35 41 40 66
4 35 36 66 61
4 35 61 60 66
4 35 60 65 66
4 35 65 40 66
4 36 37 42 67
4 36 42 41 67
4 36 37 67 62
4 36 62 61 67
4 36 61 66 67
4 36 66 41 67
4 37 38 43 68
4 37 43 42 68
4 37 38 68 63
4 37 63 62 68
4 37 62 67 68
4 37 67 42 68
4 38 39 44 69
4 38 44 43 69
4 38 39 69 64
4 38 64 63 69
4 38 63 68 69
4 38 68 43 69
4 40 41 46 71
4 40 46 45 71
4 40 41 71 66
4 40 66 65 71
4 40 65 70 71
4 40 70 45 71
4 41 42 47 72
4 41 47 46 72
4 41 42 72 67
4 41 67 66 72
4 41 66 71 72
4 41 71 46 72
4 42 43 48 73
4 42 48 47 73
4 42 43 73 68
4 42 68 67 73
4 42 67 72 73
4 42 72 47 73
4 43 44 49 74
4 43 49 48 74
4 43 44 74 69
4 43 69 68 74
4 43 68 73 74
4 43 73 48 74
4 50 51 56 81
4 50 56 55 81
4 50 51 81 76
4 50 76 75 81
4 50 75 80 81
4 50 80 55 81
4 51 52 57 82
4 51 57 56 82
4 51 52 82 77
4 51 77 76 82
4 51 76 81 82
4 51 81 56 82
4 52 53 58 83
4 52 58 57 83
4 52 53 83 78
4 52 78 77 83
4 52 77 82 83
4 52 82 57 83
4 53 54 59 84
4 53 59 58 84
4 53 54 84 79
4 53 79 78 84
4 53 78 83 84
4 53 83 58 84
4 55 56 61 86
4 55 61 60 86
4 55 56 86 81
4 55 81 80 86
4 55 80 85 86
4 55 85 60 86
4 56 57 62 87
4 56 62 61 87
4 56 57 87 82
4 56 82 81 87
4 56 81 86 87
4 56 86 61 87
4 57 58 63 88
4 57 63 62 88
4 57 58 88 83
4 57 83 82 88
4 57 82 87 88
4 57 87 62 88
4 58 59 64 89
4 58 64 63 89
4 58 59 89 84
4 58 84 83 89
4 58 83 88 89
4 58 88 63 89
4 60 61 66 91
4 60 66 65 91
4 60 61 91 86
4 60 86 85 91
4 60 85 90 91
4 60 90 65 91
4 61 62 67 92
4 61 67 66 92
4 61 62 92 87
4 61 87 86 92
4 61 86 91 92
4 61 91 66 92
4 62 63 68 93
4 62 68 67 93
4 62 63 93 88
4 62 88 87 93
4 62 87 92 93
4 62 92 67 93
4 63 64 69 94
4 63 69 68 94
4 63 64 94 89
4 63 89 88 94
4 63 88 93 94
4 63 93 68 94
4 65 66 71 96
4 65 71 70 96
4 65 66 96 91
4 65 91 90 96
4 65 90 95 96
4 65 95 70 96
4 66 67 72 97
4 66 72 71 97
4 66 67 97 92
4 66 92 91 97
4 66 91 96 97
4 66 96 71 97
4 67 68 73 98
4 67 73 72 98
4 67 68 98 93
4 67 93 92 98
4 67 92 97 98
4 67 97 72 98
4 68 69 74 99
4 68 74 73 99
4 68 69 99 94
4 68 94 93 99
4 68 93 98 99
4 68 98 73 99
4 75 76 81 106
4 75 81 80 106
4 75 76 106 101
4 75 101 100 106
4 75 100 105 106
4 75 105 80 106
4 76 77 82 107
4 76 82 81 107
4 76 77 107 102
4 76 102 101 107
4 76 101 106 107
4 76 106 81 107
4 77 78 83 108
4 77 83 82 108
4 77 78 108 103
4 77 103 102 108
4 77 102 107 108
4 77 107 82 108
4 78 79 84 109
4 78 84 83 109
4 78 79 109 104
4 78 104 103 109
4 78 103 108 109
4 78 108 83 109
4 80 81 86 111
4 80 86 85 111
4 80 81 111 106
4 80 106 105 111
4 80 105 110 111
4 80 110 85 111
4 81 82 87 112
4 81 87 86 112
4 81 82 112 107
4 81 107 106 112
4 81 106 111 112
4 81 111 86 112
4 82 83 88 113
4 82 88 87 113
4 82 83 113 108
4 82 108 107 113
4 82 107 112 113
4 82 112 87 113
4 83 84 89 114
4 83 89 88 114
4 83 84 114 109
4 83 109 108 114
4 83 108 113 114
4 83 113 88 114
4 85 86 91 116
4 85 91 90 116
4 85 86 116 111
4 85 111 110 116
4 85 110 115 116
4 85 115 90 116
4 86 87 92 117
4 86 92 91 117
4 86 87 117 112
4 86 112 111 117
4 86 111 116 117
4 86 116 91 117
4 87 88 93 118
4 87 93 92 118
4 87 88 118 113
4 87 113 112 118
4 87 112 117 118
4 87 117 92 118
4 88 89 94 119
4 88 94 93 119
4 88 89 119 114
4 88 114 113 119
4 88 113 118 119
4 88 118 93 119
4 90 91 96 121
4 90 96 95 121
4 90 91 121 116
4 90 116 115 121
4 90 115 120 121
4 90 120 95 121
4 91 92 97 122
4 91 97 96 122
4 91 92 122 117
4 91 117 116 122
4 91 116 121 122
4 91 121 96 122
4 92 93 98 123
4 92 98 97 123
4 92 93 123 118
4 92 118 117 123
4 92 117 122 123
4 92 122 97 123
4 93 94 99 124
4 93 99 98 124
4 93 94 124 119
4 93 119 118 124
4 93 118 123 124
4 93 123 98 124
CELL_TYPES 416
5
5
5
5
5
5
5
5
5
5
5
5
5
5
5
5
5
5
5
5
5
5
5
5
5
5
5
5
5
5
5
5
10
10
10
10
10
10
10
10
10
10
10
10
10
10
10
10
10
10
10
10
10
10
10
10
10
10
10
10
10
10
10
10
10
10
10
10
10
10
10
10
10
10
10
10
10
10
10
10
10
10
10
10
10
10
10
10
10
10
10
10
10
10
10
10
10
10
10
10
10
10
10
10
10
10
10
10
10
10
10
10
10
10
10
10
10
10
10
10
10
10
10
10
10
10
10
10
10
10
10
10
10
10
10
10
10
10
10
10
10
10
10
10
10
10
10
10
10
10
10
10
10
10
10
10
10
10
10
10
10
10
10
10
10
10
10
10
10
10
10
10
10
10
10
10
10
10
10
10
10
10
10
10
10
10
10
10
10
10
10
10
10
10
10
10
10
10
10
10
10
10
10
10
10
10
10
10
10
10
10
10
10
10
10
10
10
10
10
10
10
10
10
10
10
10
10
10
10
10
10
10
10
10
10
10
10
10
10
10
10
10
10
10
10
10
10
10
10
10
10
10
10
10
10
10
10
10
10
10
10
10
10
10
10
10
10
10
10
10
10
10
10
10
10
10
10
10
10
10
10
10
10
10
10
10
10
10
10
10
10
10
10
10
10
10
10
10
10
10
10
10
10
10
10
10
10
10
10
10
10
10
10
10
10
10
10
10
10
10
10
10
10
10
10
10
10
10
10
10
10
10
10
10
10
10
10
10
10
10
10
10
10
10
10
10
10
10
10
10
10
10
10
10
10
10
10
10
10
10
10
10
10
10
10
10
10
10
10
10
10
10
10
10
10
10
10
10
10
10
10
10
10
10
10
10
10
10
10
10
10
10
10
10
10
10
10
10
10
10
10
10
10
10
10
10
10
10
10
10
10
10
10
10
10
10
POINT_DATA 125
SCALARS mode_1_amplitude double 1
LOOKUP_TABLE default
0
0.03320216218175215
0.10217997290059179
0.09306019681228349
0.18082061513757233
0
0.07506849099402733
0.06457641332725335
0.09979820405061296
0.33651323691722923
0
0.08205957493882092
0.118013268146017
0.08088569355756597
0.11945295897681808
0
0.0817552812187239
0.04870007328901428
0.034397891667262405
0.16166482214894026
0
0.14461241412308054
0.019980918156993682
0.21229605858017456
0.19144107458150614
0
0.12011011083189581
0.04074008034891922
0.04645497863748219
0.06571030080835862
0
0.03964643351932691
0.0467330181338107
0.07281069091666807
0.06596351441576873
0
0.042825193212030654
0.06730684551743395
0.0612579594026253
0.05863213617520275
0
0.03360398367170024
0.0512396886566487
0.06092367314479063
0.09810725215708424
0
0.03780406600094235
0.11131618101471939
0.03380491948192444
0.07935620179170355
0
0.05770101637405426
0.06783165306035592
0.11271327301586075
0.06904581405427035
0
0.040318192354987
0.05141377587102262
0.08237744130201925
0.1245970954738036
0
0.053336934701016574
0.0637341141078154
0.06711974591944707
0.05111942439319697
0
0.06251312554259558
0.01026658307956547
0.08079563770357422
0.09046790983783931
0
0.08700591959573056
0.0732400877775972
0.062004857276289946
0.08778642205797255
0
0.018956188479232795
0.13821727389986602
0.06045641210471782
0.1637262516381791
0
0.054038396093313824
0.03183691213396645
0.08193451137748237
0.06839932541351913
0
0.0479768949011735
0.06520559578815718
0.07124765080027139
0.09856319926535793
0
0.07792342527370519
0.08889045827157041
0.0390979359653364
0.05980486202937452
0
0.08653119743308384
0.09600698718183698
0.0930203675808033
0.07946828038415217
0
0.16661067243561165
0.22534375629963446
0.19961425377956868
0.1050528975936934
0
0.021594894994223
0.124595888245106
0.06275558638720387
0.05293335588325826
0
0.07360140112769034
0.09356206630050541
0.08845644324720651
0.22102206617912307
0
0.09045509207120014
0.05095354510512291
0.07243381835619098
0.05835332136713896
0
0.07686693828099575
0.14926928374215026
0.0913987162694214
0.14072553863795034
SCALARS mode_2_amplitude double 1
LOOKUP_TABLE default
0
0.08077537381549199
0.09612282795479905
0.07605403512162834
0.1315024091936073
0
0.0828452950253022
0.05597106493096341
0.042255230609894584
0.20747812699510665
0
0.09581786529859894
0.060082670666540404
0.0851677168883628
0.10050542062858636
0
0.11811730222126571
0.05289371981238747
0.012851153285790947
0.1365038331678994
0
0.14991302888496932
0.1229607512139147
0.2091275030692648
0.08839986733058106
0
0.05715109715448648
0.13736967831146737
0.05357153189306709
0.25382816735029856
0
0.1289609886140527
0.052099658025296494
0.12212073429656195
0.09261438044990589
0
0.07431908633640791
0.06673474796694355
0.05969574757570818
0.12263280038434383
0
0.06031111617165223
0.0883457766580335
0.07809540176273812
0.06278830744263515
0
0.1259582929480937
0.04837442808851325
0.08309509350492857
0.08840868324283682
0
0.08046926469838508
0.06370421620740588
0.0894169292607601
0.10705408558958768
0
0.07888253850514174
0.03532903183536498
0.032150668316213486
0.10337161771426569
0
0.10055506072910814
0.09293436388868015
0.07792575400151192
0.030829600681036497
0
0.06311986333356939
0.04063306003186871
0.030350460264181055
0.0597121206203633
0
0.07238493809897036
0.026536038395728354
0.049980130128829035
0.06297281443334231
0
0.051568424818429666
0.047388113728126416
0.04210586351941064
0.20187620469512454
0
0.10923119395082442
0.02473716551015223
0.07409597349470919
0.054077571259581264
0
0.0748572911155017
0.04433569621902296
0.043794727763974146
0.07951913193138542
0
0.10069927754915578
0.04908328312184673
0.1048550142489759
0.15691021553889836
0
0.032111375637445774
0.06899706144627483
0.108865678740751
0.05817896389195457
0
0.12350404986365003
0.1506474192949371
0.11003325098989558
0.31899578842013376
0
0.06451879675273757
0.034427470160707616
0.07063766253319231
0.11642907417496626
0
0.1084138428922352
0.1270101359487125
0.09131753411692888
0.08661413844255496
0
0.1095876126650978
0.054039735711979925
0.055442977346253614
0.09391972169921795
0
0.08416637554466247
0.08990217416392166
0.10076513840211078
0.1173987240441226
SCALARS mode_3_amplitude double 1
LOOKUP_TABLE default
0
0.09506228988589568
0.07261981717299734
0.07676534465177207
0.17616460061170552
0
0.09926519201801996
0.10149261573699091
0.08120840014650567
0.09246169023229411
0
0.06419724955331056
0.0777456661399203
0.16112735353263272
0.15760631978528988
0
0.1502065591771262
0.09114854724061479
0.08264067202624854
0.137622855007599
0
0.11181667078106809
0.12263326892905851
0.22148930571167352
0.3428153482281171
0
0.12252593715855792
0.0789346678481991
0.1558219965958965
0.1181471443241498
0
0.028593709705357167
0.030505459601473772
0.02317678358573305
0.1457186918517026
0
0.08179904444323065
0.030974145763910322
0.048464794376889164
0.0996376422718085
0
0.06397185114591489
0.06595031488682658
0.0697488615730504
0.10099638690278272
0
0.08932710465025133
0.1075824457596962
0.012018686858343758
0.07798962451704912
0
0.07297378107409393
0.056437790991450715
0.07287027768520346
0.1917702509148859
0
0.07312935293008062
0.024179898145221066
0.014823254364631425
0.0971962474899421
0
0.05183468229683415
0.03093489583092597
0.03464585832084075
0.07112750068710337
0
0.0845900332761823
0.08449470099204648
0.04714065362930108
0.04774957900326069
0
0.03278816806641919
0.11575000508910142
0.03374307365644298
0.03705572159121936
0
0.10134513728394826
0.11436583070560548
0.1410579202284789
0.09542254316403455
0
0.0717124481452817
0.02366503371080925
0.08276700321437143
0.10982292793168881
0
0.020048673791555453
0.01588703941046873
0.07370796025562298
0.05234796067748648
0
0.09957265495528192
0.06855665972650543
0.0468185604637257
0.08444573638847287
0
0.07494225672583198
0.0516888377520845
0.17798949628961652
0.06968290272619856
0
0.10223336497154062
0.14547646251265453
0.03731879525610116
0.1877679647914795
0
0.013649115690173623
0.12421582104554306
0.07505465632629134
0.0891268256379497
0
0.10719393556940184
0.08985199149723348
0.047532232699638854
0.05330409434423815
0
0.0248854082616649
0.07594083103738507
0.01876018839582086
0.10336821840963198
0
0.07589842897539702
0.11792465705781166
0.12521030814739836
0.09051266349034524
