# vtk DataFile Version 3.0
kepler mesh
ASCII
DATASET UNSTRUCTURED_GRID
POINTS 17576 double
0 0 0
0.04 0 0
0.08 0 0
0.12 0 0
0.16 0 0
0.2 0 0
0.24 0 0
0.28 0 0
0.32 0 0
0.36 0 0
0.4 0 0
0.44 0 0
0.48 0 0
0.52 0 0
0.56 0 0
0.6 0 0
0.64 0 0
0.68 0 0
0.72 0 0
0.76 0 0
0.8 0 0
0.84 0 0
0.88 0 0
0.92 0 0
0.96 0 0
1 0 0
0 0.04 0
0.04 0.04 0
0.08 0.04 0
0.12 0.04 0
0.16 0.04 0
0.2 0.04 0
0.24 0.04 0
0.28 0.04 0
0.32 0.04 0
0.36 0.04 0
0.4 0.04 0
0.44 0.04 0
0.48 0.04 0
0.52 0.04 0
0.56 0.04 0
0.6 0.04 0
0.64 0.04 0
0.68 0.04 0
0.72 0.04 0
0.76 0.04 0
0.8 0.04 0
0.84 0.04 0
0.88 0.04 0
0.92 0.04 0
0.96 0.04 0
1 0.04 0
0 0.08 0
0.04 0.08 0
0.08 0.08 0
0.12 0.08 0
0.16 0.08 0
0.2 0.08 0
0.24 0.08 0
0.28 0.08 0
0.32 0.08 0
0.36 0.08 0
0.4 0.08 0
0.44 0.08 0
0.48 0.08 0
0.52 0.08 0
0.56 0.08 0
0.6 0.08 0
0.64 0.08 0
0.68 0.08 0
0.72 0.08 0
0.76 0.08 0
0.8 0.08 0
0.84 0.08 0
0.88 0.08 0
0.92 0.08 0
0.96 0.08 0
1 0.08 0
0 0.12 0
0.04 0.12 0
0.08 0.12 0
0.12 0.12 0
0.16 0.12 0
0.2 0.12 0
0.24 0.12 0
0.28 0.12 0
0.32 0.12 0
0.36 0.12 0
0.4 0.12 0
0.44 0.12 0
0.48 0.12 0
0.52 0.12 0
0.56 0.12 0
0.6 0.12 0
0.64 0.12 0
0.68 0.12 0
0.72 0.12 0
0.76 0.12 0
0.8 0.12 0
0.84 0.12 0
0.88 0.12 0
0.92 0.12 0
0.96 0.12 0
1 0.12 0
0 0.16 0
0.04 0.16 0
0.08 0.16 0
0.12 0.16 0
0.16 0.16 0
0.2 0.16 0
0.24 0.16 0
0.28 0.16 0
0.32 0.16 0
0.36 0.16 0
0.4 0.16 0
0.44 0.16 0
0.48 0.16 0
0.52 0.16 0
0.56 0.16 0
0.6 0.16 0
0.64 0.16 0
0.68 0.16 0
0.72 0.16 0
0.76 0.16 0
0.8 0.16 0
0.84 0.16 0
0.88 0.16 0
0.92 0.16 0
0.96 0.16 0
1 0.16 0
0 0.2 0
0.04 0.2 0
0.08 0.2 0
0.12 0.2 0
0.16 0.2 0
0.2 0.2 0
0.24 0.2 0
0.28 0.2 0
0.32 0.2 0
0.36 0.2 0
0.4 0.2 0
0.44 0.2 0
0.48 0.2 0
0.52 0.2 0
0.56 0.2 0
0.6 0.2 0
0.64 0.2 0
0.68 0.2 0
0.72 0.2 0
0.76 0.2 0
0.8 0.2 0
0.84 0.2 0
0.88 0.2 0
0.92 0.2 0
0.96 0.2 0
1 0.2 0
0 0.24 0
0.04 0.24 0
0.08 0.24 0
0.12 0.24 0
0.16 0.24 0
0.2 0.24 0
0.24 0.24 0
0.28 0.24 0
0.32 0.24 0
0.36 0.24 0
0.4 0.24 0
0.44 0.24 0
0.48 0.24 0
0.52 0.24 0
0.56 0.24 0
0.6 0.24 0
0.64 0.24 0
0.68 0.24 0
0.72 0.24 0
0.76 0.24 0
0.8 0.24 0
0.84 0.24 0
0.88 0.24 0
0.92 0.24 0
0.96 0.24 0
1 0.24 0
0 0.28 0
0.04 0.28 0
0.08 0.28 0
0.12 0.28 0
0.16 0.28 0
0.2 0.28 0
0.24 0.28 0
0.28 0.28 0
0.32 0.28 0
0.36 0.28 0
0.4 0.28 0
0.44 0.28 0
0.48 0.28 0
0.52 0.28 0
0.56 0.28 0
0.6 0.28 0
0.64 0.28 0
0.68 0.28 0
0.72 0.28 0
0.76 0.28 0
0.8 0.28 0
0.84 0.28 0
0.88 0.28 0
0.92 0.28 0
0.96 0.28 0
1 0.28 0
0 0.32 0
0.04 0.32 0
0.08 0.32 0
0.12 0.32 0
0.16 0.32 0
0.2 0.32 0
0.24 0.32 0
0.28 0.32 0
0.32 0.32 0
0.36 0.32 0
0.4 0.32 0
0.44 0.32 0
0.48 0.32 0
0.52 0.32 0
0.56 0.32 0
0.6 0.32 0
0.64 0.32 0
0.68 0.32 0
0.72 0.32 0
0.76 0.32 0
0.8 0.32 0
0.84 0.32 0
0.88 0.32 0
0.92 0.32 0
0.96 0.32 0
1 0.32 0
0 0.36 0
0.04 0.36 0
0.08 0.36 0
0.12 0.36 0
0.16 0.36 0
0.2 0.36 0
0.24 0.36 0
0.28 0.36 0
0.32 0.36 0
0.36 0.36 0
0.4 0.36 0
0.44 0.36 0
0.48 0.36 0
0.52 0.36 0
0.56 0.36 0
0.6 0.36 0
0.64 0.36 0
0.68 0.36 0
0.72 0.36 0
0.76 0.36 0
0.8 0.36 0
0.84 0.36 0
0.88 0.36 0
0.92 0.36 0
0.96 0.36 0
1 0.36 0
0 0.4 0
0.04 0.4 0
0.08 0.4 0
0.12 0.4 0
0.16 0.4 0
0.2 0.4 0
0.24 0.4 0
0.28 0.4 0
0.32 0.4 0
0.36 0.4 0
0.4 0.4 0
0.44 0.4 0
0.48 0.4 0
0.52 0.4 0
0.56 0.4 0
0.6 0.4 0
0.64 0.4 0
0.68 0.4 0
0.72 0.4 0
0.76 0.4 0
0.8 0.4 0
0.84 0.4 0
0.88 0.4 0
0.92 0.4 0
0.96 0.4 0
1 0.4 0
0 0.44 0
0.04 0.44 0
0.08 0.44 0
0.12 0.44 0
0.16 0.44 0
0.2 0.44 0
0.24 0.44 0
0.28 0.44 0
0.32 0.44 0
0.36 0.44 0
0.4 0.44 0
0.44 0.44 0
0.48 0.44 0
0.52 0.44 0
0.56 0.44 0
0.6 0.44 0
0.64 0.44 0
0.68 0.44 0
0.72 0.44 0
0.76 0.44 0
0.8 0.44 0
0.84 0.44 0
0.88 0.44 0
0.92 0.44 0
0.96 0.44 0
1 0.44 0
0 0.48 0
0.04 0.48 0
0.08 0.48 0
0.12 0.48 0
0.16 0.48 0
0.2 0.48 0
0.24 0.48 0
0.28 0.48 0
0.32 0.48 0
0.36 0.48 0
0.4 0.48 0
0.44 0.48 0
0.48 0.48 0
0.52 0.48 0
0.56 0.48 0
0.6 0.48 0
0.64 0.48 0
0.68 0.48 0
0.72 0.48 0
0.76 0.48 0
0.8 0.48 0
0.84 0.48 0
0.88 0.48 0
0.92 0.48 0
0.96 0.48 0
1 0.48 0
0 0.52 0
0.04 0.52 0
0.08 0.52 0
0.12 0.52 0
0.16 0.52 0
0.2 0.52 0
0.24 0.52 0
0.28 0.52 0
0.32 0.52 0
0.36 0.52 0
0.4 0.52 0
0.44 0.52 0
0.48 0.52 0
0.52 0.52 0
0.56 0.52 0
0.6 0.52 0
0.64 0.52 0
0.68 0.52 0
0.72 0.52 0
0.76 0.52 0
0.8 0.52 0
0.84 0.52 0
0.88 0.52 0
0.92 0.52 0
0.96 0.52 0
1 0.52 0
0 0.56 0
0.04 0.56 0
0.08 0.56 0
0.12 0.56 0
0.16 0.56 0
0.2 0.56 0
0.24 0.56 0
0.28 0.56 0
0.32 0.56 0
0.36 0.56 0
0.4 0.56 0
0.44 0.56 0
0.48 0.56 0
0.52 0.56 0
0.56 0.56 0
0.6 0.56 0
0.64 0.56 0
0.68 0.56 0
0.72 0.56 0
0.76 0.56 0
0.8 0.56 0
0.84 0.56 0
0.88 0.56 0
0.92 0.56 0
0.96 0.56 0
1 0.56 0
0 0.6 0
0.04 0.6 0
0.08 0.6 0
0.12 0.6 0
0.16 0.6 0
0.2 0.6 0
0.24 0.6 0
0.28 0.6 0
0.32 0.6 0
0.36 0.6 0
0.4 0.6 0
0.44 0.6 0
0.48 0.6 0
0.52 0.6 0
0.56 0.6 0
0.6 0.6 0
0.64 0.6 0
0.68 0.6 0
0.72 0.6 0
0.76 0.6 0
0.8 0.6 0
0.84 0.6 0
0.88 0.6 0
0.92 0.6 0
0.96 0.6 0
1 0.6 0
0 0.64 0
0.04 0.64 0
0.08 0.64 0
0.12 0.64 0
0.16 0.64 0
0.2 0.64 0
0.24 0.64 0
0.28 0.64 0
0.32 0.64 0
0.36 0.64 0
0.4 0.64 0
0.44 0.64 0
0.48 0.64 0
0.52 0.64 0
0.56 0.64 0
0.6 0.64 0
0.64 0.64 0
0.68 0.64 0
0.72 0.64 0
0.76 0.64 0
0.8 0.64 0
0.84 0.64 0
0.88 0.64 0
0.92 0.64 0
0.96 0.64 0
1 0.64 0
0 0.68 0
0.04 0.68 0
0.08 0.68 0
0.12 0.68 0
0.16 0.68 0
0.2 0.68 0
0.24 0.68 0
0.28 0.68 0
0.32 0.68 0
0.36 0.68 0
0.4 0.68 0
0.44 0.68 0
0.48 0.68 0
0.52 0.68 0
0.56 0.68 0
0.6 0.68 0
0.64 0.68 0
0.68 0.68 0
0.72 0.68 0
0.76 0.68 0
0.8 0.68 0
0.84 0.68 0
0.88 0.68 0
0.92 0.68 0
0.96 0.68 0
1 0.68 0
0 0.72 0
0.04 0.72 0
0.08 0.72 0
0.12 0.72 0
0.16 0.72 0
0.2 0.72 0
0.24 0.72 0
0.28 0.72 0
0.32 0.72 0
0.36 0.72 0
0.4 0.72 0
0.44 0.72 0
0.48 0.72 0
0.52 0.72 0
0.56 0.72 0
0.6 0.72 0
0.64 0.72 0
0.68 0.72 0
0.72 0.72 0
0.76 0.72 0
0.8 0.72 0
0.84 0.72 0
0.88 0.72 0
0.92 0.72 0
0.96 0.72 0
1 0.72 0
0 0.76 0
0.04 0.76 0
0.08 0.76 0
0.12 0.76 0
0.16 0.76 0
0.2 0.76 0
0.24 0.76 0
0.28 0.76 0
0.32 0.76 0
0.36 0.76 0
0.4 0.76 0
0.44 0.76 0
0.48 0.76 0
0.52 0.76 0
0.56 0.76 0
0.6 0.76 0
0.64 0.76 0
0.68 0.76 0
0.72 0.76 0
0.76 0.76 0
0.8 0.76 0
0.84 0.76 0
0.88 0.76 0
0.92 0.76 0
0.96 0.76 0
1 0.76 0
0 0.8 0
0.04 0.8 0
0.08 0.8 0
0.12 0.8 0
0.16 0.8 0
0.2 0.8 0
0.24 0.8 0
0.28 0.8 0
0.32 0.8 0
0.36 0.8 0
0.4 0.8 0
0.44 0.8 0
0.48 0.8 0
0.52 0.8 0
0.56 0.8 0
0.6 0.8 0
0.64 0.8 0
0.68 0.8 0
0.72 0.8 0
0.76 0.8 0
0.8 0.8 0
0.84 0.8 0
0.88 0.8 0
0.92 0.8 0
0.96 0.8 0
1 0.8 0
0 0.84 0
0.04 0.84 0
0.08 0.84 0
0.12 0.84 0
0.16 0.84 0
0.2 0.84 0
0.24 0.84 0
0.28 0.84 0
0.32 0.84 0
0.36 0.84 0
0.4 0.84 0
0.44 0.84 0
0.48 0.84 0
0.52 0.84 0
0.56 0.84 0
0.6 0.84 0
0.64 0.84 0
0.68 0.84 0
0.72 0.84 0
0.76 0.84 0
0.8 0.84 0
0.84 0.84 0
0.88 0.84 0
0.92 0.84 0
0.96 0.84 0
1 0.84 0
0 0.88 0
0.04 0.88 0
0.08 0.88 0
0.12 0.88 0
0.16 0.88 0
0.2 0.88 0
0.24 0.88 0
0.28 0.88 0
0.32 0.88 0
0.36 0.88 0
0.4 0.88 0
0.44 0.88 0
0.48 0.88 0
0.52 0.88 0
0.56 0.88 0
0.6 0.88 0
0.64 0.88 0
0.68 0.88 0
0.72 0.88 0
0.76 0.88 0
0.8 0.88 0
0.84 0.88 0
0.88 0.88 0
0.92 0.88 0
0.96 0.88 0
1 0.88 0
0 0.92 0
0.04 0.92 0
0.08 0.92 0
0.12 0.92 0
0.16 0.92 0
0.2 0.92 0
0.24 0.92 0
0.28 0.92 0
0.32 0.92 0
0.36 0.92 0
0.4 0.92 0
0.44 0.92 0
0.48 0.92 0
0.52 0.92 0
0.56 0.92 0
0.6 0.92 0
0.64 0.92 0
0.68 0.92 0
0.72 0.92 0
0.76 0.92 0
0.8 0.92 0
0.84 0.92 0
0.88 0.92 0
0.92 0.92 0
0.96 0.92 0
1 0.92 0
0 0.96 0
0.04 0.96 0
0.08 0.96 0
0.12 0.96 0
0.16 0.96 0
0.2 0.96 0
0.24 0.96 0
0.28 0.96 0
0.32 0.96 0
0.36 0.96 0
0.4 0.96 0
0.44 0.96 0
0.48 0.96 0
0.52 0.96 0
0.56 0.96 0
0.6 0.96 0
0.64 0.96 0
0.68 0.96 0
0.72 0.96 0
0.76 0.96 0
0.8 0.96 0
0.84 0.96 0
0.88 0.96 0
0.92 0.96 0
0.96 0.96 0
1 0.96 0
0 1 0
0.04 1 0
0.08 1 0
0.12 1 0
0.16 1 0
0.2 1 0
0.24 1 0
0.28 1 0
0.32 1 0
0.36 1 0
0.4 1 0
0.44 1 0
0.48 1 0
0.52 1 0
0.56 1 0
0.6 1 0
0.64 1 0
0.68 1 0
0.72 1 0
0.76 1 0
0.8 1 0
0.84 1 0
0.88 1 0
0.92 1 0
0.96 1 0
1 1 0
0 0 0.04
0.04 0 0.04
0.08 0 0.04
0.12 0 0.04
0.16 0 0.04
0.2 0 0.04
0.24 0 0.04
0.28 0 0.04
0.32 0 0.04
0.36 0 0.04
0.4 0 0.04
0.44 0 0.04
0.48 0 0.04
0.52 0 0.04
0.56 0 0.04
0.6 0 0.04
0.64 0 0.04
0.68 0 0.04
0.72 0 0.04
0.76 0 0.04
0.8 0 0.04
0.84 0 0.04
0.88 0 0.04
0.92 0 0.04
0.96 0 0.04
1 0 0.04
0 0.04 0.04
0.04 0.04 0.04
0.08 0.04 0.04
0.12 0.04 0.04
0.16 0.04 0.04
0.2 0.04 0.04
0.24 0.04 0.04
0.28 0.04 0.04
0.32 0.04 0.04
0.36 0.04 0.04
0.4 0.04 0.04
0.44 0.04 0.04
0.48 0.04 0.04
0.52 0.04 0.04
0.56 0.04 0.04
0.6 0.04 0.04
0.64 0.04 0.04
0.68 0.04 0.04
0.72 0.04 0.04
0.76 0.04 0.04
0.8 0.04 0.04
0.84 0.04 0.04
0.88 0.04 0.04
0.92 0.04 0.04
0.96 0.04 0.04
1 0.04 0.04
0 0.08 0.04
0.04 0.08 0.04
0.08 0.08 0.04
0.12 0.08 0.04
0.16 0.08 0.04
0.2 0.08 0.04
0.24 0.08 0.04
0.28 0.08 0.04
0.32 0.08 0.04
0.36 0.08 0.04
0.4 0.08 0.04
0.44 0.08 0.04
0.48 0.08 0.04
0.52 0.08 0.04
0.56 0.08 0.04
0.6 0.08 0.04
0.64 0.08 0.04
0.68 0.08 0.04
0.72 0.08 0.04
0.76 0.08 0.04
0.8 0.08 0.04
0.84 0.08 0.04
0.88 0.08 0.04
0.92 0.08 0.04
0.96 0.08 0.04
1 0.08 0.04
0 0.12 0.04
0.04 0.12 0.04
0.08 0.12 0.04
0.12 0.12 0.04
0.16 0.12 0.04
0.2 0.12 0.04
0.24 0.12 0.04
0.28 0.12 0.04
0.32 0.12 0.04
0.36 0.12 0.04
0.4 0.12 0.04
0.44 0.12 0.04
0.48 0.12 0.04
0.52 0.12 0.04
0.56 0.12 0.04
0.6 0.12 0.04
0.64 0.12 0.04
0.68 0.12 0.04
0.72 0.12 0.04
0.76 0.12 0.04
0.8 0.12 0.04
0.84 0.12 0.04
0.88 0.12 0.04
0.92 0.12 0.04
0.96 0.12 0.04
1 0.12 0.04
0 0.16 0.04
0.04 0.16 0.04
0.08 0.16 0.04
0.12 0.16 0.04
0.16 0.16 0.04
0.2 0.16 0.04
0.24 0.16 0.04
0.28 0.16 0.04
0.32 0.16 0.04
0.36 0.16 0.04
0.4 0.16 0.04
0.44 0.16 0.04
0.48 0.16 0.04
0.52 0.16 0.04
0.56 0.16 0.04
0.6 0.16 0.04
0.64 0.16 0.04
0.68 0.16 0.04
0.72 0.16 0.04
0.76 0.16 0.04
0.8 0.16 0.04
0.84 0.16 0.04
0.88 0.16 0.04
0.92 0.16 0.04
0.96 0.16 0.04
1 0.16 0.04
0 0.2 0.04
0.04 0.2 0.04
0.08 0.2 0.04
0.12 0.2 0.04
0.16 0.2 0.04
0.2 0.2 0.04
0.24 0.2 0.04
0.28 0.2 0.04
0.32 0.2 0.04
0.36 0.2 0.04
0.4 0.2 0.04
0.44 0.2 0.04
0.48 0.2 0.04
0.52 0.2 0.04
0.56 0.2 0.04
0.6 0.2 0.04
0.64 0.2 0.04
0.68 0.2 0.04
0.72 0.2 0.04
0.76 0.2 0.04
0.8 0.2 0.04
0.84 0.2 0.04
0.88 0.2 0.04
0.92 0.2 0.04
0.96 0.2 0.04
1 0.2 0.04
0 0.24 0.04
0.04 0.24 0.04
0.08 0.24 0.04
0.12 0.24 0.04
0.16 0.24 0.04
0.2 0.24 0.04
0.24 0.24 0.04
0.28 0.24 0.04
0.32 0.24 0.04
[...]
POINT_DATA 17576
SCALARS u double 1
LOOKUP_TABLE default
0
3.9196280319819796
7.6792501012880665
11.27886013702381
14.718451847990378
17.99801860283019
21.117553297156153
24.077048201341494
26.8764947803375
29.515883473266022
31.99520341516757
34.314442074194766
36.473584763437096
38.4726139625593
40.31150834348543
41.99024132021629
43.50877880372242
44.86707556479356
46.065069011426544
47.10266779922904
47.97972914002748
48.69600860480041
49.25103467371171
49.643752366933526
49.87138551082295
49.92546729662007
0
3.919630019541511
7.6792541124925595
11.278866245269421
14.71846016667467
17.99802928964284
21.117566560521023
24.077064309734016
26.87651407567798
29.515906390264618
31.995230509459564
34.31447406413109
36.47362259347424
38.472658901953075
40.311562144895504
41.99030648464647
43.508859044547606
44.867176669606174
46.06520056437563
47.10284694822719
47.97998976537485
48.696426403428035
49.251804132263594
49.645447216691394
49.87590263015861
49.93954908237737
0
3.9196346837717573
7.6792635250609225
11.278880577242553
14.718479682099773
17.998054355293483
21.117597660428544
24.0771020661603
26.876559279077416
29.515960042255692
31.995293885043473
34.31454880322828
36.47371083826153
38.472763507786354
40.3116870132173
41.9904571055793
43.50904341491958
44.86740691467781
46.06549594584803
47.10323974331355
47.98053735148796
48.697237027364984
49.253091724168655
49.64763549933958
49.87972451734333
49.945425043601524
0
3.9196421219167155
7.679278533959089
11.27890342642387
14.718510787022298
17.99809429192085
21.11764718684262
24.077162153538282
26.876631155581276
29.51604525531979
31.995394390505915
34.31466709449221
36.473850136567584
38.47292804776849
40.31188248041581
41.99069132227441
43.50932744152732
44.867756861896844
46.06593602123652
47.103807439723276
47.98129221029443
48.69827458201891
49.254561404943985
49.64974507153691
49.88265264196299
49.94891185696936
0
3.9196522550941593
7.679298978134903
11.278934542635932
14.718553130749317
17.9981486311416
21.117714528643017
24.077243781823867
26.876728683864552
29.516160700549136
31.995530276857785
34.31482660065605
36.47403730716131
38.473148100669746
40.312142259102025
41.99099996915213
43.50969740845276
44.868205429242465
46.06648755490724
47.10449661395901
47.98216814291105
48.69940461637797
49.25602949433618
49.651630330999204
49.88495764964743
49.95141324448153
0
3.919664925241232
7.679324536468374
11.278973431256778
14.718606028295708
17.998216472741422
21.11779853497238
24.07734549972628
26.87685004229824
29.516304087311344
31.99569864393663
34.31502360965113
36.47426753116442
38.473417305976575
40.31245779922777
41.991371334241435
43.51013698184626
44.86872949836181
46.06711757489829
47.10526055467462
47.98310129854934
48.700548218096785
49.25742346901065
49.65329387201227
49.886851565714316
49.95339419215452
0
3.9196799234006394
7.679354785207351
11.279019441630444
14.71866858275792
17.998296645374992
21.117897720513024
24.077465453484074
26.87699293393976
29.516472572707364
31.995895960914666
34.315253705467235
36.47453523203684
38.47372854156526
40.31281989650377
41.99179339320441
43.510630334064096
44.86930821548092
46.06779891305997
47.10606504761719
47.98405188293938
48.70166724326537
49.25872583919128
49.65477462798456
49.88846897005504
49.95505768322448
0
3.9196970021543613
7.679389223442816
11.279071806793423
14.718739741255172
17.998387781697677
21.11801036420927
24.077601515421424
26.87715475378974
29.516662980217397
31.996118354296033
34.3155121508033
36.474834587877886
38.474074612115444
40.31321961341832
41.99225501738942
43.511163649825605
44.86992465123391
46.06851145272815
47.10688768015322
47.984998171086275
48.702747424750925
49.25994188846566
49.65611334192076
49.88989501970907
49.95651146747945
0
3.919715883945463
7.679427290160072
11.279129670173843
14.718818332753216
17.998488369557425
21.11813457698918
24.077751372658568
26.877332704624045
29.516871950864346
31.996361805232667
34.31579414401935
36.475159863288006
38.474448669589776
40.31364879127637
41.99274654806744
43.51172565537174
44.87056601143283
46.06924143390114
47.107715154390924
47.98593020200278
48.70378700099833
49.26108476538637
49.65734447047439
49.891185948376304
49.957820755132325
0
3.919736267876309
7.6794683781198305
11.279192107182483
14.718903098406992
17.99859679255241
21.118268354539378
24.077912594756867
26.87752388291086
29.517096051505618
31.99662228457322
34.31609498457921
36.47550560568021
38.47484443247759
40.3141002659114
41.99325994510625
43.51230756849892
44.8712231441152
46.06998011394798
47.108540543023224
47.98684510761086
48.704790268022975
49.262169375632546
49.65849579999108
49.89238097265768
49.9590289213521
0
3.919757835480427
7.679511845622488
11.279258143315376
14.718992716494856
17.99871136249198
21.118409618166268
24.078082683946068
26.877725339287085
29.51733184598526
31.996895833912767
34.31641016058421
36.47586673047512
38.47525624986376
40.314567874149354
41.99378867020393
43.51290274930362
44.87188979228451
46.070722406342405
47.1093611079938
47.98774409187672
48.70576423396589
49.2632101934481
49.659589850858886
49.89350907259832
49.960167127659965
0
3.9197802557245076
7.6795570265120325
11.279326769197434
14.719085822554398
17.998830344573978
21.11855624479549
24.078259109380628
26.87793411586302
29.517575933124924
31.997178599917
34.31673537168532
36.476238519405534
38.47567905319383
40.31504632417142
41.99432742324046
43.513506228885376
44.87256182426848
46.07146572681385
47.110176738619685
47.98863060722208
48.70671699647465
49.264220701719786
49.66064541186341
49.894592998806594
49.961259401725854
0
3.919803189255662
7.679603238552835
11.279396952861271
14.719181025146025
17.998951975970993
21.118706087270017
24.078439327387496
26.878147263643772
29.51782495703315
31.997466830971124
34.31706650225224
36.4766165557245
38.47610823287481
40.3155309852274
41.994871808865994
43.51411421139404
44.873236534111435
46.07220908077625
47.110988878694464
47.9895092907122
48.70765701817248
49.265213472818175
49.66167884425561
49.895651797609766
49.96232562938083
0
3.919826291960287
7.679649790389487
11.27946764969867
14.71927691805436
17.99907447912538
21.118856987008606
24.078620790877277
26.878361844879702
29.51807559688723
31.99775684666799
34.317399559946764
36.47699661776749
38.476539468947294
40.31601763419293
41.995417976448024
43.51472358885406
44.873912026715026
46.072952344355635
47.11179978075791
47.99038534076976
48.70859284840529
49.26620048564247
49.662705155950064
49.896702552973956
49.963383531711784
0
3.919849218142614
7.679695987627105
11.279537810895878
14.719372090191282
17.999196071687606
21.119006781817415
24.078800951916435
26.878574925971115
29.518324544073636
31.99804499093305
34.317730594103736
36.477374549230845
38.476968537643636
40.316502182043756
41.99596225267096
43.515331474459664
44.87458666382999
46.073695664327715
47.11261194210082
47.99126411704418
48.70953304680743
49.26719352119947
49.663738931270935
49.897761748491774
49.964450171360085
0
3.9198716235481696
7.679741138618827
11.279606391379948
14.71946513471246
17.99931497526438
21.119153312000183
24.078977261928628
26.878783567162692
29.518568475077664
31.99832757973558
34.3180556075079
36.47774612195364
38.477391110412036
40.31698039447614
41.996500772788835
43.515934743102406
44.875258530753875
46.07443889631481
47.11342759682606
47.99215080614501
48.7104861630781
49.26820457588591
49.66479521456163
49.89884651945221
49.96554332522404
0
3.9198931685317824
7.6797845605442605
11.279672358289293
14.719554658903242
17.999429425286362
21.119294428083684
24.07914717417234
26.878984815386055
29.51880402857149
31.99860085416978
34.318370474726585
36.478106906036246
38.47780256017548
40.31744761784885
41.99702911214251
43.516529562707596
44.875924879063064
46.075180999838835
47.11424814547719
47.99305001451297
48.71146065508677
49.26924625621924
49.66589044638698
49.899976028529835
49.96668300704936
0
3.9199135216309746
7.6798255863497635
11.279734700820066
14.719639296252113
17.99953768416457
21.119428003290125
24.079308152928036
26.87917570633515
29.519027794895685
31.998860949645287
34.31867088037884
36.47845216305936
38.478197791409045
40.31789852453034
41.99754192383175
43.51711090494262
44.87658150484127
46.0759193086985
47.115073394595086
47.993965127941664
48.71246459552799
49.270332090953474
49.667043551345586
49.901173241189376
49.96789348509642
0
3.9199323636689254
7.679863572866458
11.279792442177841
14.71971772183172
17.99963805943993
21.1195519533673
24.079457693248717
26.879353281374375
29.519236325847963
31.999103891962175
34.31895229164289
36.47877678049722
38.4785711156265
40.318326900794936
41.99803260200443
43.517672041157454
44.87722203815526
46.07664860022687
47.115900456551586
47.99489721237649
48.71350491155873
49.27147659277645
49.66827726247526
49.90246752046033
49.96920636376162
0
3.9199493925387396
7.679897910443026
11.279844654086597
14.719788671715984
17.99972892804561
21.119664265497722
24.07959335396069
26.879514623446912
29.519426171142953
31.99932563000099
34.319209979453504
36.47907526811173
38.47891620090581
40.31872551416905
41.99849301336163
43.51820406244332
44.87783715747736
46.07735991296617
47.116722140429374
47.99584312109011
48.714585679622175
49.2726946358709
49.66961967323531
49.903898777720954
49.970665868320445
0
3.919964328716827
7.679928034075273
11.279890473870289
14.719850966510434
17.999808766995038
21.119763036946093
24.07971280522136
26.879656914414802
29.5195939460038
31.99952211282748
34.31943910169469
36.47934183847002
38.47922613078271
40.319086113809355
41.9989133723861
43.5186955178724
44.87841382003062
46.078039142956904
47.11752469223525
47.99679234138781
48.71570459134186
49.27399907623516
49.671105602018585
49.90552455478329
49.97233898889957
0
3.9199769211975606
7.679953435591158
11.279929123484898
14.719903538210273
17.999876189467532
21.11984652238881
24.079813889691724
26.879777513408655
29.51973643064865
31.999689414620185
34.31963485718332
36.479570590401494
38.47949360925991
40.31939963044567
41.9992823718452
43.5191323413249
44.87893473338745
46.0786656397179
47.11828492207
47.99772207377573
48.71684607629952
49.27539407561846
49.67277585849693
49.90743255093695
49.974337770915824
0
3.919986953627422
7.679973676332292
11.279959929604916
14.71994545904997
17.99992998448967
21.11991318738909
24.07989469402458
26.879874052104377
29.519850697284724
31.99982390378449
34.31979270995217
36.479755803340616
38.479711338511436
40.31965663998374
41.999587702301184
43.519498317394635
44.879378486740386
46.07921139201132
47.11896729422109
47.99859045556934
48.717968960356934
49.2768585219995
49.674667393255966
49.909762139420806
49.976878149394366
0
3.919994250272811
7.679988399529771
11.279982343357474
14.719975970265422
17.999969157195842
21.11996176381724
24.079953624804993
26.879944539071108
29.519934254196063
31.999922443161907
34.31990866895507
36.47989232915677
38.47987256658495
40.31984812052603
41.999817069474595
43.51977636591371
44.87972094934957
46.079641946102164
47.11952273733955
47.99932961332432
48.71898736820406
49.278308893872286
49.67677092330736
49.912731305860824
49.98047802694744
0
3.919998681302688
7.679997341319031
11.27999595806565
14.719994508151744
17.999992965807
21.119991301649243
24.079989481015122
26.879987461669298
29.519985190402434
31.99998259780489
34.319979590276176
36.479976037391616
38.479971751202434
40.31996645108334
41.999959701518996
43.51995079589761
44.87993852441152
46.07992066958954
47.11989278705427
47.999844855502154
48.719750669223494
49.279529213855334
49.67888556938312
49.91658489883786
49.98683633497489
0
3.920000166892962
7.6800003393455825
11.280000523168711
14.720000724745171
18.000000951262926
21.12000121099136
24.080001513738562
26.880001871576734
29.520002299757508
32.00000281791472
34.32000345189946
36.48000423667818
38.48000522106738
40.32000647524183
42.0000081037524
43.520010269065146
44.88001323613935
46.080017463568645
47.120023808019425
48.000034045721016
48.72005247411013
49.28009223817012
49.68020828905829
49.920713977389376
50.003844476264064
0
3.919630019541507
7.679254112492558
11.278866245269423
14.718460166674667
17.99802928964284
21.117566560521023
24.077064309734023
26.87651407567798
29.51590639026461
31.995230509459564
34.31447406413109
36.47362259347424
38.47265890195306
40.311562144895504
41.99030648464647
43.50885904454761
44.867176669606174
46.06520056437563
47.102846948227175
47.97998976537485
48.69642640342803
49.25180413226358
49.6454472166914
49.875902630158606
49.939549082377354
0
3.9196316445312007
7.679257391917349
11.278871239090842
14.718466967504693
17.998038026250185
21.11757740305678
24.07707747733466
26.876529847329728
29.515925120460317
31.99525265106883
34.31450020222724
36.473653496537764
38.47269560150553
40.31160606304763
41.9903596463268
43.50892444720887
44.867258964635845
46.0653074055584
47.10299190851951
47.98019937453629
48.69675944537194
49.25241238778483
49.64679433571889
49.87965472686725
49.95259747611658
0
3.919636218076247
7.679266621448158
11.278885292289964
14.718486103163487
17.99806260382523
21.117607896874166
24.077114497087333
26.876574167402286
29.51597772191475
31.995314782404893
34.31457346873081
36.47373999426127
38.47279812275907
40.31172842031696
41.99050719921211
43.509104991605504
44.86748429790715
46.06559621574468
47.10337538730189
47.98073268128775
48.69754605152702
49.2536561405265
49.6489022331357
49.883365644494745
49.95858861912404
0
3.919643629343209
7.679281576102945
11.278908058828234
14.71851709545372
17.998102395596838
21.117657243249564
24.07717436539894
26.876645780844417
29.516062621522504
31.995414915658717
34.314691317996605
36.47387876587008
38.47296203058504
40.3119231200534
41.99074046848296
43.5093878208151
44.8678326823441
46.06603416250943
47.103940024765514
47.9814828728038
48.698576116553504
49.255113778786445
49.65099527597415
49.88628837813369
49.9621662138791
0
3.9196537526345034
7.679302000321034
11.278939144616519
14.718559397679856
17.998156681380348
21.1177245185307
24.077255912574902
26.876743211463165
29.51617794998344
31.99555066276785
34.31485065790466
36.47406573698203
38.473181842024196
40.312182602580066
41.99104874543223
43.50975731447915
44.86828062590723
46.06658484505063
47.10462799576917
47.98235705913443
48.69970363043475
49.25657857233591
49.652877949232426
49.88859905736444
49.964708985944256
0
3.919666418243254
7.679327549488842
11.27897801924559
14.718612276114465
17.99822449834002
21.117808494109198
24.077357592868022
26.87686452446358
29.5163212821862
31.995718964452383
34.31504758835781
36.474295866096625
38.473450931627205
40.31249799978162
41.99141993100979
43.510196657969246
44.86880439434336
46.06721446418536
47.10539139652604
47.98328949633614
48.70084634067098
49.257971695208376
49.65454161920244
49.89049735522653
49.96670930420708
0
3.919681413884684
7.679357793158563
11.279024021868766
14.718674819979903
17.9983046572781
21.117907662536687
24.077477525639377
26.877007390658477
29.516489736929287
31.99591624454653
34.315277639701364
36.47456351307227
38.473762101380096
40.312860015805356
41.99184188851646
43.510689882012485
44.86938294807261
46.067895593825575
47.106195627459456
47.98423976854706
48.70196504727914
49.2592739032035
49.65602287238353
49.89211746184879
49.96838296538324
0
3.919698491048227
7.679392228179415
11.27907638212279
14.718745971753394
17.998395784899493
21.118020295331966
24.077613574193506
26.877169194262525
29.516680124833425
31.996138614320515
34.31553605658381
36.47486283450491
38.47410813011883
40.31325968162378
41.99230344992738
43.511223120463484
44.86999928897728
46.06860801903235
47.10701812756392
47.98518591832181
48.703045122319665
49.26048997976311
49.65736202245969
49.89354519519194
49.9698427474529
0
3.9197173717476477
7.67943029266258
11.279134242087858
14.71882455856959
17.998496366694813
21.118144500510724
24.07776342209011
26.87734713375973
29.51688908181228
31.996382048850297
34.31581803011024
36.4751880862888
38.47448215920359
40.31368882534989
41.992794939660385
43.511785077218896
44.87064059200634
46.06933793548247
47.10784553366288
47.98611788896924
48.704084672914185
49.26163292837876
49.65859348361386
49.89483723614648
49.97115593569336
0
3.919737754848681
7.679471378952017
11.279196676548422
14.71890932072698
17.998604785165526
21.11827827239481
24.07792463723834
26.877538303630477
29.517113172349067
31.996642516115173
34.31611885630657
36.47553381162517
38.474877901915995
40.31414027623895
41.993308308992255
43.51236695856001
44.87129768926588
46.07007657817351
47.10867088711293
47.98703277037406
48.70508794496522
49.26271761348457
49.65974506518233
49.89603304681296
49.97236685669028
0
3.9197593218008047
7.679514845146106
11.279262710680763
14.718998936085418
17.998719351570873
21.118419531603852
24.07809472102447
26.8777397534889
29.517348959040838
31.996916056213
34.31643402140753
36.475894923645214
38.47528970444152
40.314607867375784
41.99383701472318
43.51296211798593
44.87196431484026
46.070818848510676
47.10949143405437
47.98793174722369
48.70606192698261
49.26375849924271
49.660839313632515
49.89716174278657
49.973507160144266
0
3.9197817415310032
7.6795600249849105
11.279331334950584
14.719092039942572
17.998838330814763
21.118566154681037
24.07827114212042
26.87794852485106
29.517593039978774
31.997198814903605
34.31675922396864
36.47626670268836
38.47571249645169
40.3150863046234
41.99437575367099
43.5135655825689
44.87263633175334
46.071562155433156
47.11030705549142
47.988818262828374
48.70701470887465
49.26476906784068
49.66189503778026
49.89824615451174
49.97460115342907
0
3.9198046746287014
7.6796062361518835
11.279401517288983
14.719187240713415
17.998959959853156
21.118715994214607
24.0784513565361
26.878161668329994
29.517842058786314
31.99748703997378
34.317090347594075
36.47664473102782
38.47614166710091
40.31557095565902
41.99492012845407
43.514173553840294
44.87331103074916
46.072305500315245
47.111119190643976
47.989696949706904
48.7079547503156
49.26576189355758
49.66292861365762
49.899305380113454
49.975668902930614
0
3.919827776969592
7.679652787248397
11.279472212999755
14.71928313207815
17.999082461014876
21.118866891468702
24.07863281699676
26.878376245932817
29.518092694338826
31.997777050628038
34.31742339944711
36.47702478637931
38.47657289562357
40.31605759627417
41.99546628705767
43.51478292207122
44.87398651455877
46.073048756751376
47.111930089307045
47.99057300385063
48.70889059952222
49.26674895774071
49.663955060786925
49.9003565420359
49.97672826469139
0
3.9198507028381377
7.6796989838574925
11.279542373217232
14.719378302886543
17.99920405186688
21.119016684138415
24.078812975430626
26.878589323886352
29.518341637796986
31.998065190516247
34.317754428495334
36.477402711973106
38.47700195764394
40.316542136651364
41.99601055515448
43.51539079916166
44.87466114335557
46.07379206967349
47.11274224681957
47.99145178322681
48.709830815550866
49.26774204377509
49.664988973721364
49.90141615793395
49.97779642280253
0
3.9198731079685567
7.67974413429471
11.279610952868392
14.719471346254833
17.999322953943803
21.1191632124519
24.078989283147862
26.878797962299004
29.51858556548179
31.998347775377557
34.318079437258206
36.47777427926253
38.477424524116884
40.317020341889005
41.99654906718045
43.51599405896848
44.87533300110381
46.07453529307501
47.1135578954659
47.992338472697924
48.71078394726939
49.268753150114534
49.66604540718752
49.902501399930095
49.978891288325094
0
3.9198946527223386
7.679787555751887
11.27967691904959
14.719560869440805
17.999437402657932
21.11930432688616
24.07915919335175
26.878999208032297
29.51882111595592
31.998621046186894
34.31839430012722
36.47813505814274
38.477835967673805
40.31748755788405
41.997077397847995
43.51658886849992
44.87599933811809
46.07527738475696
47.11437843356191
47.993237676223956
48.71175845059811
49.269794884511846
49.66714081385223
49.9036314785469
49.98003305349663
0
3.919915005623016
7.679828581140137
11.279739260938971
14.719645505901457
17.999545660377976